      -----------------------------------------------------------      
     |                   =====================                   |     
     |                           x T B                           |     
     |                   =====================                   |     
     |                         S. Grimme                         |     
     |          Mulliken Center for Theoretical Chemistry        |     
     |                    University of Bonn                     |     
      -----------------------------------------------------------      

   * xtb version 6.7.0 (08769fc) compiled by 'albert@albert-system' on 2024-03-04

   xtb is free software: you can redistribute it and/or modify it under
   the terms of the GNU Lesser General Public License as published by
   the Free Software Foundation, either version 3 of the License, or
   (at your option) any later version.
   
   xtb is distributed in the hope that it will be useful,
   but WITHOUT ANY WARRANTY; without even the implied warranty of
   MERCHANTABILITY or FITNESS FOR A PARTICULAR PURPOSE.  See the
   GNU Lesser General Public License for more details.
   
   Cite this work as:
   * C. Bannwarth, E. Caldeweyher, S. Ehlert, A. Hansen, P. Pracht,
     J. Seibert, S. Spicher, S. Grimme, WIREs Comput. Mol. Sci., 2020, 11,
     e01493. DOI: 10.1002/wcms.1493
   
   for GFN2-xTB:
   * C. Bannwarth, S. Ehlert and S. Grimme., J. Chem. Theory Comput., 2019,
     15, 1652-1671. DOI: 10.1021/acs.jctc.8b01176
   for GFN1-xTB:
   * S. Grimme, C. Bannwarth, P. Shushkov, J. Chem. Theory Comput., 2017,
     13, 1989-2009. DOI: 10.1021/acs.jctc.7b00118
   for GFN0-xTB:
   * P. Pracht, E. Caldeweyher, S. Ehlert, S. Grimme, ChemRxiv, 2019, preprint.
     DOI: 10.26434/chemrxiv.8326202.v1
   for GFN-FF:
   * S. Spicher and S. Grimme, Angew. Chem. Int. Ed., 2020, 59, 15665-15673.
     DOI: 10.1002/anie.202004239
   
   for ALPB and GBSA implicit solvation:
   * S. Ehlert, M. Stahn, S. Spicher, S. Grimme, J. Chem. Theory Comput.,
     2021, 17, 4250-4261. DOI: 10.1021/acs.jctc.1c00471
   
   for ddCOSMO and CPCM-X implicit solvation:
   * M. Stahn, S. Ehlert, S. Grimme, J. Phys. Chem. A,
     2023, XX, XXXX-XXXX. DOI: 10.1021/acs.jpca.3c04382
   
   for DFT-D4:
   * E. Caldeweyher, C. Bannwarth and S. Grimme, J. Chem. Phys., 2017,
     147, 034112. DOI: 10.1063/1.4993215
   * E. Caldeweyher, S. Ehlert, A. Hansen, H. Neugebauer, S. Spicher,
     C. Bannwarth and S. Grimme, J. Chem. Phys., 2019, 150, 154122.
     DOI: 10.1063/1.5090222
   * E. Caldeweyher, J.-M. Mewes, S. Ehlert and S. Grimme, Phys. Chem. Chem. Phys.
     2020, 22, 8499-8512. DOI: 10.1039/D0CP00502A
   
   for sTDA-xTB:
   * S. Grimme and C. Bannwarth, J. Chem. Phys., 2016, 145, 054103.
     DOI: 10.1063/1.4959605
   
   in the mass-spec context:
   * V. Asgeirsson, C. Bauer and S. Grimme, Chem. Sci., 2017, 8, 4879.
     DOI: 10.1039/c7sc00601b
   * J. Koopman and S. Grimme, ACS Omega 2019, 4, 12, 15120-15133.
     DOI: 10.1021/acsomega.9b02011
   
   for metadynamics refer to:
   * S. Grimme, J. Chem. Theory Comput., 2019, 155, 2847-2862
     DOI: 10.1021/acs.jctc.9b00143
   
   for SPH calculations refer to:
   * S. Spicher and S. Grimme, J. Chem. Theory Comput., 2021, 17, 1701-1714
     DOI: 10.1021/acs.jctc.0c01306
   
   for ONIOM refer to:
   * C. Plett, A. Katbashev, S. Ehlert, S. Grimme, M. Bursch,
     Phys. Chem. Chem. Phys., 2023, 25, 17860-17868. DOI: 10.1039/D3CP02178E
   
   for DIPRO refer to:
   * J. Kohn, N. Gildemeister, S. Grimme, D. Fazzi, A. Hansen,
     J. Chem. Phys., 2023, just accepted.
   
   for PTB refer to:
   * S. Grimme, M. Mueller, A. Hansen, J. Chem. Phys., 2023, 158, 124111.
     DOI: 10.1063/5.0137838
   
   with help from (in alphabetical order)
   P. Atkinson, C. Bannwarth, F. Bohle, G. Brandenburg, E. Caldeweyher
   M. Checinski, S. Dohm, S. Ehlert, S. Ehrlich, I. Gerasimov, C. Hölzer
   A. Katbashev, J. Kohn, J. Koopman, C. Lavigne, S. Lehtola, F. März, M. Müller,
   F. Musil, H. Neugebauer, J. Pisarek, C. Plett, P. Pracht, F. Pultar,
   J. Seibert, P. Shushkov, S. Spicher, M. Stahn, M. Steiner, T. Strunk,
   J. Stückrath, T. Rose, and J. Unsleber
   
 * started run on 2024/05/20 at 09:48:59.452     
   ID    Z sym.   atoms
    1    5 B      1
    2    7 N      2, 9
    3    6 C      3-8, 10-12
    4    9 F      13, 14
    5    1 H      15-21

           -------------------------------------------------
          |                Calculation Setup                |
           -------------------------------------------------

          program call               : xtb crest_best.xyz --gfn 2 --opt vtight --parallel 4
          coordinate file            : crest_best.xyz
          omp threads                :                     4


           -------------------------------------------------
          |                 G F N 2 - x T B                 |
           -------------------------------------------------

        Reference                      10.1021/acs.jctc.8b01176
      * Hamiltonian:
        H0-scaling (s, p, d)           1.850000    2.230000    2.230000
        zeta-weighting                 0.500000
      * Dispersion:
        s8                             2.700000
        a1                             0.520000
        a2                             5.000000
        s9                             5.000000
      * Repulsion:
        kExp                           1.500000    1.000000
        rExp                           1.000000
      * Coulomb:
        alpha                          2.000000
        third order                    shell-resolved
        anisotropic                    true
        a3                             3.000000
        a5                             4.000000
        cn-shift                       1.200000
        cn-exp                         4.000000
        max-rad                        5.000000


          ...................................................
          :                      SETUP                      :
          :.................................................:
          :  # basis functions                  63          :
          :  # atomic orbitals                  63          :
          :  # shells                           35          :
          :  # electrons                        70          :
          :  max. iterations                   250          :
          :  Hamiltonian                  GFN2-xTB          :
          :  restarted?                      false          :
          :  GBSA solvation                  false          :
          :  PC potential                    false          :
          :  electronic temp.          300.0000000     K    :
          :  accuracy                    1.0000000          :
          :  -> integral cutoff          0.2500000E+02      :
          :  -> integral neglect         0.1000000E-07      :
          :  -> SCF convergence          0.1000000E-05 Eh   :
          :  -> wf. convergence          0.1000000E-03 e    :
          :  Broyden damping             0.4000000          :
          :  net charge                          0          :
          :  unpaired electrons                  0          :
          ...................................................

 iter      E             dE          RMSdq      gap      omega  full diag
   1    -39.8656885 -0.398657E+02  0.570E+00    1.94       0.0  T
   2    -39.9999419 -0.134253E+00  0.386E+00    1.68       1.0  T
   3    -39.9925489  0.739298E-02  0.165E+00    1.91       1.0  T
   4    -40.0191751 -0.266262E-01  0.685E-01    1.70       1.0  T
   5    -40.0266234 -0.744830E-02  0.252E-01    1.77       1.0  T
   6    -40.0269917 -0.368322E-03  0.123E-01    1.74       1.0  T
   7    -40.0271275 -0.135790E-03  0.597E-02    1.77       1.0  T
   8    -40.0271729 -0.453679E-04  0.137E-02    1.76       1.6  T
   9    -40.0271749 -0.204779E-05  0.528E-03    1.76       4.1  T
  10    -40.0271750 -0.574838E-07  0.241E-03    1.76       9.1  T
  11    -40.0271750 -0.162570E-07  0.158E-03    1.76      13.8  T
  12    -40.0271750 -0.410928E-07  0.521E-04    1.76      41.8  T
  13    -40.0271750 -0.542919E-08  0.170E-04    1.76     128.5  T

   *** convergence criteria satisfied after 13 iterations ***

         #    Occupation            Energy/Eh            Energy/eV
      -------------------------------------------------------------
         1        2.0000           -0.7609719             -20.7071
       ...           ...                  ...                  ...
        29        2.0000           -0.4509231             -12.2702
        30        2.0000           -0.4430043             -12.0548
        31        2.0000           -0.4384294             -11.9303
        32        2.0000           -0.4285357             -11.6610
        33        2.0000           -0.4226254             -11.5002
        34        2.0000           -0.4222584             -11.4902
        35        2.0000           -0.3998847             -10.8814 (HOMO)
        36                         -0.3352875              -9.1236 (LUMO)
        37                         -0.2207094              -6.0058
        38                         -0.1957171              -5.3257
        39                         -0.1802489              -4.9048
        40                         -0.1382274              -3.7614
       ...                                ...                  ...
        63                          0.6764068              18.4060
      -------------------------------------------------------------
                  HL-Gap            0.0645972 Eh            1.7578 eV
             Fermi-level           -0.3675861 Eh          -10.0025 eV

 SCC (total)                   0 d,  0 h,  0 min,  0.091 sec
 SCC setup                      ...        0 min,  0.001 sec (  1.175%)
 Dispersion                     ...        0 min,  0.001 sec (  0.615%)
 classical contributions        ...        0 min,  0.000 sec (  0.267%)
 integral evaluation            ...        0 min,  0.005 sec (  5.234%)
 iterations                     ...        0 min,  0.071 sec ( 78.094%)
 molecular gradient             ...        0 min,  0.013 sec ( 14.221%)
 printout                       ...        0 min,  0.000 sec (  0.335%)

         :::::::::::::::::::::::::::::::::::::::::::::::::::::
         ::                     SUMMARY                     ::
         :::::::::::::::::::::::::::::::::::::::::::::::::::::
         :: total energy             -39.522983101188 Eh    ::
         :: gradient norm              0.065847585878 Eh/a0 ::
         :: HOMO-LUMO gap              1.757780000312 eV    ::
         ::.................................................::
         :: SCC energy               -40.027134484095 Eh    ::
         :: -> isotropic ES            0.086607358127 Eh    ::
         :: -> anisotropic ES         -0.003600525096 Eh    ::
         :: -> anisotropic XC          0.012885115976 Eh    ::
         :: -> dispersion             -0.021150447466 Eh    ::
         :: repulsion energy           0.504151382908 Eh    ::
         :: add. restraining           0.000000000000 Eh    ::
         :: total charge              -0.000000000000 e     ::
         :::::::::::::::::::::::::::::::::::::::::::::::::::::

      ----------------------------------------------------------- 
     |                   =====================                   |
     |                        A N C O P T                        |
     |                   =====================                   |
     |               Approximate Normal Coordinate               |
     |                Rational Function Optimizer                |
      ----------------------------------------------------------- 
      ----------------------------------------------------------- 
     |                   =====================                   |
     |                        A N C O P T                        |
     |                   =====================                   |
     |               Approximate Normal Coordinate               |
     |                Rational Function Optimizer                |
      ----------------------------------------------------------- 

          ...................................................
          :                      SETUP                      :
          :.................................................:
          :   optimization level         verytight          :
          :   max. optcycles                   420          :
          :   ANC micro-cycles                  20          :
          :   degrees of freedom                57          :
          :.................................................:
          :   RF solver                   davidson          :
          :   write xtbopt.log                true          :
          :   linear?                        false          :
          :   energy convergence         0.1000000E-06 Eh   :
          :   grad. convergence          0.2000000E-03 Eh/α :
          :   maxmium RF displ.          1.0000000          :
          :   Hlow (freq-cutoff)         0.1000000E-01      :
          :   Hmax (freq-cutoff)         5.0000000          :
          :   S6 in model hess.         20.0000000          :
          ...................................................

generating ANC from model Hessian ...
Using Lindh-Hessian (1995)
 Shifting diagonal of input Hessian by   6.408111118189425E-003
 Lowest  eigenvalues of input Hessian
    0.000000    0.000000    0.000000    0.000000    0.000000    0.000000
    0.010000    0.011449    0.016520    0.021270    0.022843    0.026456
    0.027601    0.033073    0.045629    0.049986    0.059237    0.065440
 Highest eigenvalues
    1.870289    1.902775    1.912224    1.949421    2.038946    2.159043
 

........................................................................
.............................. CYCLE    1 ..............................
........................................................................

 iter      E             dE          RMSdq      gap      omega  full diag
   1    -40.0271751 -0.400272E+02  0.353E-05    1.76       0.0  T
   2    -40.0271751 -0.817124E-11  0.212E-05    1.76    1030.6  T
   3    -40.0271751 -0.353140E-11  0.122E-05    1.76    1782.5  T
     SCC iter.                  ...        0 min,  0.017 sec
     gradient                   ...        0 min,  0.008 sec
 * total energy  :   -39.5229831 Eh     change       -0.4065726E-09 Eh
   gradient norm :     0.0658471 Eh/α   predicted     0.0000000E+00 (-100.00%)
   displ. norm   :     0.2305819 α      lambda       -0.1028273E-01
   maximum displ.:     0.1125546 α      in ANC's #23, #27, #24, ...

........................................................................
.............................. CYCLE    2 ..............................
........................................................................

 iter      E             dE          RMSdq      gap      omega  full diag
   1    -40.0450984 -0.400451E+02  0.349E-01    1.77       0.0  T
   2    -40.0451971 -0.987727E-04  0.206E-01    1.78       1.0  T
   3    -40.0451440  0.531898E-04  0.740E-02    1.77       1.0  T
   4    -40.0452190 -0.750317E-04  0.208E-02    1.78       1.0  T
   5    -40.0452259 -0.690102E-05  0.633E-03    1.78       3.4  T
   6    -40.0452259  0.130099E-07  0.385E-03    1.78       5.7  T
   7    -40.0452261 -0.200136E-06  0.111E-03    1.78      19.7  T
   8    -40.0452261 -0.187501E-07  0.517E-04    1.78      42.2  T
   9    -40.0452261 -0.292432E-08  0.274E-04    1.78      79.8  T
     SCC iter.                  ...        0 min,  0.031 sec
     gradient                   ...        0 min,  0.006 sec
 * total energy  :   -39.5296736 Eh     change       -0.6690511E-02 Eh
   gradient norm :     0.0219545 Eh/α   predicted    -0.5414875E-02 ( -19.07%)
   displ. norm   :     0.1247393 α      lambda       -0.1590160E-02
   maximum displ.:     0.0751691 α      in ANC's #6, #23, #24, ...

........................................................................
.............................. CYCLE    3 ..............................
........................................................................

 iter      E             dE          RMSdq      gap      omega  full diag
   1    -40.0511517 -0.400512E+02  0.147E-01    1.79       0.0  T
   2    -40.0511663 -0.146522E-04  0.861E-02    1.79       1.0  T
   3    -40.0511588  0.755898E-05  0.283E-02    1.79       1.0  T
   4    -40.0511706 -0.118523E-04  0.605E-03    1.79       3.6  T
   5    -40.0511709 -0.316687E-06  0.306E-03    1.79       7.1  T
   6    -40.0511709 -0.159746E-08  0.174E-03    1.79      12.6  T
   7    -40.0511710 -0.553787E-07  0.641E-04    1.79      34.1  T
   8    -40.0511710 -0.519708E-08  0.286E-04    1.79      76.4  T
     SCC iter.                  ...        0 min,  0.012 sec
     gradient                   ...        0 min,  0.006 sec
 * total energy  :   -39.5305347 Eh     change       -0.8610497E-03 Eh
   gradient norm :     0.0063065 Eh/α   predicted    -0.8076708E-03 (  -6.20%)
   displ. norm   :     0.0397804 α      lambda       -0.9992999E-04
   maximum displ.:     0.0323027 α      in ANC's #6, #23, #10, ...

........................................................................
.............................. CYCLE    4 ..............................
........................................................................

 iter      E             dE          RMSdq      gap      omega  full diag
   1    -40.0512942 -0.400513E+02  0.255E-02    1.79       0.0  T
   2    -40.0512954 -0.120590E-05  0.163E-02    1.79       1.3  T
   3    -40.0512950  0.365385E-06  0.738E-03    1.79       3.0  T
   4    -40.0512954 -0.391402E-06  0.379E-03    1.79       5.8  T
   5    -40.0512957 -0.245953E-06  0.904E-04    1.79      24.1  T
   6    -40.0512957 -0.216200E-08  0.401E-04    1.79      54.4  T
     SCC iter.                  ...        0 min,  0.009 sec
     gradient                   ...        0 min,  0.006 sec
 * total energy  :   -39.5306068 Eh     change       -0.7217906E-04 Eh
   gradient norm :     0.0037277 Eh/α   predicted    -0.5006161E-04 ( -30.64%)
   displ. norm   :     0.0353315 α      lambda       -0.4867764E-04
   maximum displ.:     0.0291261 α      in ANC's #6, #10, #17, ...

........................................................................
.............................. CYCLE    5 ..............................
........................................................................

 iter      E             dE          RMSdq      gap      omega  full diag
   1    -40.0512352 -0.400512E+02  0.255E-02    1.79       0.0  T
   2    -40.0512366 -0.146634E-05  0.166E-02    1.79       1.3  T
   3    -40.0512365  0.139304E-06  0.762E-03    1.79       2.9  T
   4    -40.0512367 -0.191743E-06  0.376E-03    1.79       5.8  T
   5    -40.0512369 -0.212036E-06  0.109E-03    1.79      20.1  T
   6    -40.0512369 -0.754222E-08  0.494E-04    1.79      44.2  T
   7    -40.0512369 -0.467549E-08  0.189E-04    1.79     115.8  T
     SCC iter.                  ...        0 min,  0.020 sec
     gradient                   ...        0 min,  0.006 sec
 * total energy  :   -39.5306331 Eh     change       -0.2622548E-04 Eh
   gradient norm :     0.0014848 Eh/α   predicted    -0.2437291E-04 (  -7.06%)
   displ. norm   :     0.0060604 α      lambda       -0.2209802E-05
   maximum displ.:     0.0043047 α      in ANC's #6, #15, #30, ...

........................................................................
.............................. CYCLE    6 ..............................
........................................................................

 iter      E             dE          RMSdq      gap      omega  full diag
   1    -40.0513013 -0.400513E+02  0.666E-03    1.79       0.0  T
   2    -40.0513013 -0.805197E-07  0.374E-03    1.79       5.8  T
   3    -40.0513013  0.634701E-08  0.175E-03    1.79      12.5  T
   4    -40.0513013 -0.185887E-07  0.687E-04    1.79      31.8  T
   5    -40.0513014 -0.273449E-08  0.359E-04    1.79      60.7  T
     SCC iter.                  ...        0 min,  0.007 sec
     gradient                   ...        0 min,  0.006 sec
 * total energy  :   -39.5306349 Eh     change       -0.1798542E-05 Eh
   gradient norm :     0.0005341 Eh/α   predicted    -0.1108368E-05 ( -38.37%)
   displ. norm   :     0.0062355 α      lambda        0.1669260E-05
   maximum displ.:     0.0044907 α      in ANC's #6, #15, #30, ...

........................................................................
.............................. CYCLE    7 ..............................
........................................................................

 iter      E             dE          RMSdq      gap      omega  full diag
   1    -40.0513648 -0.400514E+02  0.679E-03    1.79       0.0  T
   2    -40.0513649 -0.890833E-07  0.378E-03    1.79       5.8  T
   3    -40.0513648  0.614166E-08  0.185E-03    1.79      11.8  T
   4    -40.0513649 -0.207020E-07  0.720E-04    1.79      30.3  T
   5    -40.0513649 -0.287719E-08  0.366E-04    1.79      59.6  T
     SCC iter.                  ...        0 min,  0.007 sec
     gradient                   ...        0 min,  0.006 sec
 * total energy  :   -39.5306336 Eh     change        0.1240713E-05 Eh
   gradient norm :     0.0011164 Eh/α   predicted     0.8311851E-06 ( -33.01%)
   displ. norm   :     0.0073133 α      lambda       -0.2082435E-05
   maximum displ.:     0.0051660 α      in ANC's #6, #5, #15, ...

........................................................................
.............................. CYCLE    8 ..............................
........................................................................

 iter      E             dE          RMSdq      gap      omega  full diag
   1    -40.0513261 -0.400513E+02  0.724E-03    1.79       0.0  T
   2    -40.0513262 -0.743077E-07  0.440E-03    1.79       5.0  T
   3    -40.0513262  0.102275E-07  0.166E-03    1.79      13.1  T
   4    -40.0513262 -0.154856E-07  0.716E-04    1.79      30.5  T
   5    -40.0513262 -0.412712E-08  0.448E-04    1.79      48.7  T
     SCC iter.                  ...        0 min,  0.007 sec
     gradient                   ...        0 min,  0.007 sec
 * total energy  :   -39.5306351 Eh     change       -0.1492319E-05 Eh
   gradient norm :     0.0001678 Eh/α   predicted    -0.1048298E-05 ( -29.75%)
   displ. norm   :     0.0017001 α      lambda       -0.8193277E-07
   maximum displ.:     0.0010844 α      in ANC's #5, #7, #14, ...

........................................................................
.............................. CYCLE    9 ..............................
........................................................................

 iter      E             dE          RMSdq      gap      omega  full diag
   1    -40.0513081 -0.400513E+02  0.170E-03    1.79       0.0  T
   2    -40.0513081 -0.740691E-09  0.101E-03    1.79      21.5  T
   3    -40.0513081  0.311245E-08  0.363E-04    1.79      60.2  T
   4    -40.0513081 -0.328932E-08  0.108E-04    1.79     202.0  T
     SCC iter.                  ...        0 min,  0.006 sec
     gradient                   ...        0 min,  0.006 sec
 * total energy  :   -39.5306352 Eh     change       -0.3701854E-07 Eh
   gradient norm :     0.0000968 Eh/α   predicted    -0.4897140E-07 (  32.29%)
   displ. norm   :     0.0011605 α      lambda       -0.2385837E-07
   maximum displ.:     0.0007980 α      in ANC's #3, #1, #6, ...

   *** GEOMETRY OPTIMIZATION CONVERGED AFTER 9 ITERATIONS ***

------------------------------------------------------------------------
 total energy gain   :        -0.0076521 Eh       -4.8017 kcal/mol
 total RMSD          :         0.0855233 a0        0.0453 Å
 total power (kW/mol):        -2.2322736 (step)  -86.6895 (real)
------------------------------------------------------------------------

 ANCopt (total)                0 d,  0 h,  0 min,  0.232 sec
 optimizer setup                ...        0 min,  0.000 sec (  0.086%)
 model hessian                  ...        0 min,  0.017 sec (  7.497%)
 ANC generation                 ...        0 min,  0.002 sec (  0.713%)
 coordinate transformation      ...        0 min,  0.000 sec (  0.074%)
 single point calculation       ...        0 min,  0.208 sec ( 89.933%)
 optimization log               ...        0 min,  0.002 sec (  0.765%)
 hessian update                 ...        0 min,  0.000 sec (  0.170%)
 rational function              ...        0 min,  0.001 sec (  0.441%)

================
 final structure:
================
21
 xtb: 6.7.0 (08769fc)
B            0.00017702547114       -1.16278300758150       -0.00066745582212
N            1.24627061273776       -0.24052716815861        0.00156683326844
C            2.51751016718841       -0.61857106195354        0.00312179552443
C            3.35655455317452        0.50528058989949        0.00287962869207
C            2.53997009715796        1.61256448083341        0.00070384955847
C            1.20516205259512        1.13862599607688        0.00014173749418
C           -0.00032304841497        1.82113886290758       -0.00086056016971
C           -1.20556889601404        1.13823115177159       -0.00003278571764
N           -1.24621954616455       -0.24093939120406        0.00141150110296
C           -2.51733119656370       -0.61939495552925        0.00279339346127
C           -3.35674880643504        0.50418227224421        0.00240880679564
C           -2.54053645941108        1.61173106081800        0.00032937542529
F            0.00024382828561       -1.95252177517873        1.12653597519940
F            0.00037878254792       -1.94636075684075       -1.13235955411530
H            2.78211959574293       -1.65870958034460        0.00449248995480
H            4.42824695964868        0.48432192858323        0.00408458591224
H            2.83029821730682        2.64483513379815       -0.00008583811622
H           -0.00050328004935        2.90076584426171       -0.00216023668259
H           -2.78159953233566       -1.65962084112531        0.00415081215104
H           -4.42843611467985        0.48287175548703        0.00346040370419
H           -2.83120516788862        2.64390648123507       -0.00052439102083
 
 Bond Distances (Angstroems)
 ---------------------------
B1-N2=1.5503         B1-N9=1.5503         B1-F13=1.3763        B1-F14=1.3765        N2-B1=1.5503         N2-C3=1.3263         
N2-C6=1.3798         C3-N2=1.3263         C3-C4=1.4025         C3-H15=1.0733        C4-C3=1.4025         C4-C5=1.3758         
C4-H16=1.0719        C5-C4=1.3758         C5-C6=1.4165         C5-H17=1.0723        C6-N2=1.3798         C6-C5=1.4165         
C6-C7=1.3853         C7-C6=1.3853         C7-C8=1.3853         C7-H18=1.0796        C8-C7=1.3853         C8-N9=1.3798         
C8-C12=1.4165        N9-B1=1.5503         N9-C8=1.3798         N9-C10=1.3263        C10-N9=1.3263        C10-C11=1.4025       
C10-H19=1.0733       C11-C10=1.4025       C11-C12=1.3758       C11-H20=1.0719       C12-C8=1.4165        C12-C11=1.3758       
C12-H21=1.0723       F13-B1=1.3763        F14-B1=1.3765        H15-C3=1.0733        H16-C4=1.0719        H17-C5=1.0723        
H18-C7=1.0796        H19-C10=1.0733       H20-C11=1.0719       H21-C12=1.0723       
 C  H  Rav=1.0735 sigma=0.0026  Rmin=1.0719  Rmax=1.0796     7
 C  C  Rav=1.3950 sigma=0.0156  Rmin=1.3758  Rmax=1.4165     8
 N  B  Rav=1.5503 sigma=0.0000  Rmin=1.5503  Rmax=1.5503     2
 N  C  Rav=1.3530 sigma=0.0268  Rmin=1.3263  Rmax=1.3798     4
 F  B  Rav=1.3764 sigma=0.0001  Rmin=1.3763  Rmax=1.3765     2
 
 selected bond angles (degree)
 --------------------
N9-B1-N2=107.01                F13-B1-N2=109.89               F13-B1-N9=109.89               F14-B1-N2=109.86               
F14-B1-N9=109.86               F14-B1-F13=110.29              C3-N2-B1=126.93                C6-N2-B1=124.80                
C6-N2-C3=108.27                C4-C3-N2=110.18                H15-C3-N2=120.83               H15-C3-C4=128.98               
C5-C4-C3=106.85                H16-C4-C3=125.62               H16-C4-C5=127.53               C6-C5-C4=106.86                
H17-C5-C4=127.88               H17-C5-C6=125.26               C5-C6-N2=107.84                C7-C6-N2=121.22                
C7-C6-C5=130.93                C8-C7-C6=120.95                H18-C7-C6=119.53               H18-C7-C8=119.53               
N9-C8-C7=121.22                C12-C8-C7=130.93               C12-C8-N9=107.84               C8-N9-B1=124.80                
C10-N9-B1=126.93               C10-N9-C8=108.27               C11-C10-N9=110.18              H19-C10-N9=120.83              
H19-C10-C11=128.98             
 
 selected dihedral angles (degree)
 ---------------------------------
C3-N2-B1-N9=179.87            C3-N2-B1-F13= 60.60           C3-N2-B1-F14=299.10           C6-N2-B1-N9=359.76            
C6-N2-B1-F13=240.50           C6-N2-B1-F14=118.99           C4-C3-N2-B1=179.91            C4-C3-N2-C6=  0.00            
H15-C3-N2-B1=359.90           H15-C3-N2-C6=180.00           C5-C4-C3-N2=  0.00            C5-C4-C3-H15=179.99           
H16-C4-C3-N2=179.99           H16-C4-C3-H15=  0.00          C6-C5-C4-C3=  0.00            C6-C5-C4-H16=180.02           
H17-C5-C4-C3=180.00           H17-C5-C4-H16=  0.00          C5-C6-N2-B1=180.10            C5-C6-N2-C3=  0.00            
C7-C6-N2-B1=  0.13            C7-C6-N2-C3=180.04            N2-C6-C5-C4=  0.00            N2-C6-C5-H17=180.00           
C7-C6-C5-C4=179.95            C7-C6-C5-H17=359.97           C8-C7-C6-N2=  0.00            C8-C7-C6-C5=180.06            
H18-C7-C6-N2=180.01           H18-C7-C6-C5=  0.05           N9-C8-C7-C6=  0.00            N9-C8-C7-H18=179.99           
C12-C8-C7-C6=179.94           C12-C8-C7-H18=359.95          C8-N9-B1-N2=  0.24            C8-N9-B1-F13=119.50           
C8-N9-B1-F14=241.01           C10-N9-B1-N2=180.13           C10-N9-B1-F13=299.39          C10-N9-B1-F14= 60.90          
B1-N9-C8-C7=359.87            B1-N9-C8-C12=179.90           C10-N9-C8-C7=179.96           C10-N9-C8-C12=  0.00          
C11-C10-N9-B1=180.09          C11-C10-N9-C8=  0.00          H19-C10-N9-B1=  0.10          H19-C10-N9-C8=180.01          
           -------------------------------------------------
          |                Final Singlepoint                |
           -------------------------------------------------

          ...................................................
          :                      SETUP                      :
          :.................................................:
          :  # basis functions                  63          :
          :  # atomic orbitals                  63          :
          :  # shells                           35          :
          :  # electrons                        70          :
          :  max. iterations                   250          :
          :  Hamiltonian                  GFN2-xTB          :
          :  restarted?                      false          :
          :  GBSA solvation                  false          :
          :  PC potential                    false          :
          :  electronic temp.          300.0000000     K    :
          :  accuracy                    1.0000000          :
          :  -> integral cutoff          0.2500000E+02      :
          :  -> integral neglect         0.1000000E-07      :
          :  -> SCF convergence          0.1000000E-05 Eh   :
          :  -> wf. convergence          0.1000000E-03 e    :
          :  Broyden damping             0.4000000          :
          :  net charge                          0          :
          :  unpaired electrons                  0          :
          ...................................................

 iter      E             dE          RMSdq      gap      omega  full diag
   1    -40.0513081 -0.400513E+02  0.298E-05    1.79       0.0  T
   2    -40.0513081  0.497380E-11  0.270E-05    1.79     809.0  T
   3    -40.0513081 -0.156817E-10  0.105E-05    1.79    2077.7  T

   *** convergence criteria satisfied after 3 iterations ***

         #    Occupation            Energy/Eh            Energy/eV
      -------------------------------------------------------------
         1        2.0000           -0.7666289             -20.8610
       ...           ...                  ...                  ...
        29        2.0000           -0.4548469             -12.3770
        30        2.0000           -0.4459697             -12.1355
        31        2.0000           -0.4437220             -12.0743
        32        2.0000           -0.4336688             -11.8007
        33        2.0000           -0.4263876             -11.6026
        34        2.0000           -0.4261761             -11.5968
        35        2.0000           -0.3983677             -10.8401 (HOMO)
        36                         -0.3325582              -9.0494 (LUMO)
        37                         -0.2169157              -5.9026
        38                         -0.1937135              -5.2712
        39                         -0.1792401              -4.8774
        40                         -0.1358536              -3.6968
       ...                                ...                  ...
        63                          0.6890033              18.7487
      -------------------------------------------------------------
                  HL-Gap            0.0658094 Eh            1.7908 eV
             Fermi-level           -0.3654630 Eh           -9.9448 eV

 SCC (total)                   0 d,  0 h,  0 min,  0.026 sec
 SCC setup                      ...        0 min,  0.000 sec (  0.729%)
 Dispersion                     ...        0 min,  0.000 sec (  0.447%)
 classical contributions        ...        0 min,  0.000 sec (  0.093%)
 integral evaluation            ...        0 min,  0.002 sec (  9.212%)
 iterations                     ...        0 min,  0.005 sec ( 17.864%)
 molecular gradient             ...        0 min,  0.018 sec ( 70.383%)
 printout                       ...        0 min,  0.000 sec (  1.100%)

         :::::::::::::::::::::::::::::::::::::::::::::::::::::
         ::                     SUMMARY                     ::
         :::::::::::::::::::::::::::::::::::::::::::::::::::::
         :: total energy             -39.530635154349 Eh    ::
         :: gradient norm              0.000095840118 Eh/a0 ::
         :: HOMO-LUMO gap              1.790766099553 eV    ::
         ::.................................................::
         :: SCC energy               -40.051269672335 Eh    ::
         :: -> isotropic ES            0.083956994186 Eh    ::
         :: -> anisotropic ES         -0.002749199067 Eh    ::
         :: -> anisotropic XC          0.011217624317 Eh    ::
         :: -> dispersion             -0.021117115658 Eh    ::
         :: repulsion energy           0.520634517986 Eh    ::
         :: add. restraining           0.000000000000 Eh    ::
         :: total charge              -0.000000000000 e     ::
         :::::::::::::::::::::::::::::::::::::::::::::::::::::

           -------------------------------------------------
          |                Property Printout                |
           -------------------------------------------------

    * Orbital Energies and Occupations

         #    Occupation            Energy/Eh            Energy/eV
      -------------------------------------------------------------
         1        2.0000           -0.7666289             -20.8610
       ...           ...                  ...                  ...
        23        2.0000           -0.4915153             -13.3748
        24        2.0000           -0.4822048             -13.1215
        25        2.0000           -0.4771553             -12.9841
        26        2.0000           -0.4754777             -12.9384
        27        2.0000           -0.4686723             -12.7532
        28        2.0000           -0.4596379             -12.5074
        29        2.0000           -0.4548469             -12.3770
        30        2.0000           -0.4459697             -12.1355
        31        2.0000           -0.4437220             -12.0743
        32        2.0000           -0.4336688             -11.8007
        33        2.0000           -0.4263876             -11.6026
        34        2.0000           -0.4261761             -11.5968
        35        2.0000           -0.3983677             -10.8401 (HOMO)
        36                         -0.3325582              -9.0494 (LUMO)
        37                         -0.2169157              -5.9026
        38                         -0.1937135              -5.2712
        39                         -0.1792401              -4.8774
        40                         -0.1358536              -3.6968
        41                          0.0412068               1.1213
        42                          0.0442726               1.2047
        43                          0.0825917               2.2474
        44                          0.0957867               2.6065
        45                          0.1149769               3.1287
        46                          0.1327604               3.6126
       ...                                ...                  ...
        63                          0.6890033              18.7487
      -------------------------------------------------------------
                  HL-Gap            0.0658094 Eh            1.7908 eV
             Fermi-level           -0.3654630 Eh           -9.9448 eV

     #   Z          covCN         q      C6AA      α(0)
     1   5 B        3.111     0.522    14.272     6.301
     2   7 N        2.748    -0.092    23.041     7.129
     3   6 C        3.076     0.044    26.927     8.508
     4   6 C        3.035    -0.051    29.233     8.868
     5   6 C        3.036    -0.043    29.021     8.836
     6   6 C        3.133     0.049    26.703     8.459
     7   6 C        2.900    -0.018    28.451     8.746
     8   6 C        3.133     0.049    26.703     8.459
     9   7 N        2.748    -0.092    23.041     7.129
    10   6 C        3.076     0.044    26.927     8.508
    11   6 C        3.035    -0.051    29.233     8.868
    12   6 C        3.036    -0.043    29.021     8.836
    13   9 F        0.722    -0.369    13.147     4.282
    14   9 F        0.722    -0.369    13.148     4.282
    15   1 H        0.926     0.072     2.058     2.244
    16   1 H        0.926     0.051     2.312     2.378
    17   1 H        0.926     0.050     2.316     2.380
    18   1 H        0.926     0.073     2.050     2.239
    19   1 H        0.926     0.072     2.058     2.244
    20   1 H        0.926     0.051     2.312     2.378
    21   1 H        0.926     0.050     2.316     2.380

 Mol. C6AA /au·bohr⁶  :       6139.243456
 Mol. C8AA /au·bohr⁸  :     152045.830221
 Mol. α(0) /au        :        123.452538


Wiberg/Mayer (AO) data.
largest (>0.10) Wiberg bond orders for each atom

 ---------------------------------------------------------------------------
     #   Z sym  total        # sym  WBO       # sym  WBO       # sym  WBO
 ---------------------------------------------------------------------------
     1   5 B    3.388 --    13 F    0.874    14 F    0.874     2 N    0.794
                             9 N    0.794
     2   7 N    3.615 --     3 C    1.416     6 C    1.150     1 B    0.794
     3   6 C    3.930 --     2 N    1.416     4 C    1.329    15 H    0.966
     4   6 C    3.961 --     5 C    1.535     3 C    1.329    16 H    0.973
     5   6 C    3.954 --     4 C    1.535     6 C    1.248    17 H    0.972
     6   6 C    3.964 --     7 C    1.372     5 C    1.248     2 N    1.150
     7   6 C    3.986 --     8 C    1.372     6 C    1.372    18 H    0.962
     8   6 C    3.964 --     7 C    1.372    12 C    1.248     9 N    1.150
     9   7 N    3.615 --    10 C    1.416     8 C    1.150     1 B    0.794
    10   6 C    3.930 --     9 N    1.416    11 C    1.329    19 H    0.966
    11   6 C    3.961 --    12 C    1.535    10 C    1.329    20 H    0.973
    12   6 C    3.954 --    11 C    1.535     8 C    1.248    21 H    0.972
    13   9 F    0.973 --     1 B    0.874
    14   9 F    0.973 --     1 B    0.874
    15   1 H    0.994 --     3 C    0.966
    16   1 H    0.997 --     4 C    0.973
    17   1 H    0.997 --     5 C    0.972
    18   1 H    0.994 --     7 C    0.962
    19   1 H    0.994 --    10 C    0.966
    20   1 H    0.997 --    11 C    0.973
    21   1 H    0.997 --    12 C    0.972
 ---------------------------------------------------------------------------

Topologies differ in total number of bonds
Writing topology from bond orders to xtbtopo.mol

molecular dipole:
                 x           y           z       tot (Debye)
 q only:       -0.000       1.887       0.005
   full:       -0.000       1.976       0.005       5.023
molecular quadrupole (traceless):
                xx          xy          yy          xz          yz          zz
 q only:       11.979       0.003      -4.844       0.001      -0.016      -7.136
  q+dip:       14.800       0.003      -2.494       0.002      -0.023     -12.306
   full:       12.858       0.003      -4.427       0.001      -0.017      -8.430

           -------------------------------------------------
          |                Geometry Summary                 |
           -------------------------------------------------

      molecular mass/u    :      191.9734491
   center of mass at/Å    :       -0.0000124      -0.0119852       0.0003924
  moments of inertia/u·Å² :        0.3864056E+03   0.7760611E+03   0.1065524E+04
rotational constants/cm⁻¹ :        0.4362678E-01   0.2172204E-01   0.1582098E-01

 * 23 selected distances

     #   Z          #   Z                                           value/Å
     1   5 B        2   7 N                                       1.5502614 (max)
     2   7 N        3   6 C                                       1.3262616
     3   6 C        4   6 C                                       1.4025115
     4   6 C        5   6 C                                       1.3758244
     2   7 N        6   6 C                                       1.3797666
     5   6 C        6   6 C                                       1.4164501
     6   6 C        7   6 C                                       1.3852868
     7   6 C        8   6 C                                       1.3852731
     1   5 B        9   7 N                                       1.5502596
     8   6 C        9   7 N                                       1.3797704
     9   7 N       10   6 C                                       1.3262563
    10   6 C       11   6 C                                       1.4025150
     8   6 C       12   6 C                                       1.4164537
    11   6 C       12   6 C                                       1.3758167
     1   5 B       13   9 F                                       1.3763267
     1   5 B       14   9 F                                       1.3764888
     3   6 C       15   1 H                                       1.0732699
     4   6 C       16   1 H                                       1.0718981 (min)
     5   6 C       17   1 H                                       1.0723218
     7   6 C       18   1 H                                       1.0796279
    10   6 C       19   1 H                                       1.0732706
    11   6 C       20   1 H                                       1.0718998
    12   6 C       21   1 H                                       1.0723224

 * 5 distinct bonds (by element types)

   Z      Z             #   av. dist./Å        max./Å        min./Å
   1 H    6 C           7     1.0735158     1.0796279     1.0718981
   6 C    6 C           8     1.3950164     1.4164537     1.3758167
   5 B    7 N           2     1.5502605     1.5502614     1.5502596
   6 C    7 N           4     1.3530137     1.3797704     1.3262563
   5 B    9 F           2     1.3764078     1.3764888     1.3763267


optimized geometry written to: xtbopt.xyz


           -------------------------------------------------
          | TOTAL ENERGY              -39.530635154349 Eh   |
          | GRADIENT NORM               0.000095840118 Eh/α |
          | HOMO-LUMO GAP               1.790766099553 eV   |
           -------------------------------------------------

------------------------------------------------------------------------
 * finished run on 2024/05/20 at 09:48:59.828     
------------------------------------------------------------------------
 total:
 * wall-time:     0 d,  0 h,  0 min,  0.375 sec
 *  cpu-time:     0 d,  0 h,  0 min,  1.189 sec
 * ratio c/w:     3.167 speedup
 SCF:
 * wall-time:     0 d,  0 h,  0 min,  0.091 sec
 *  cpu-time:     0 d,  0 h,  0 min,  0.267 sec
 * ratio c/w:     2.940 speedup
 ANC optimizer:
 * wall-time:     0 d,  0 h,  0 min,  0.260 sec
 *  cpu-time:     0 d,  0 h,  0 min,  0.859 sec
 * ratio c/w:     3.308 speedup

